LAMMPS (7 Jan 2022)
OMP_NUM_THREADS environment is not set. Defaulting to 1 thread. (src/src/comm.cpp:98)
  using 1 OpenMP thread(s) per MPI task
Reading data file ...
  orthogonal box = (0 0 0) to (40 40 0.2)
  6 by 6 by 1 MPI processor grid
  reading atoms ...
  610 atoms
  read_data CPU = 0.004 seconds
Reading airebo potential file CH.airebo with DATE: 2011-10-25
WARNING: Using 'neigh_modify every 1 delay 0 check yes' setting during minimization (src/src/min.cpp:187)
Neighbor list info ...
  update every 1 steps, delay 0 steps, check yes
  max neighbors/atom: 2000, page size: 100000
  master list distance cutoff = 12.2
  ghost atom cutoff = 12.2
  binsize = 6.1, bins = 7 7 1
  1 neighbor lists, perpetual/occasional/extra = 1 0 0
  (1) pair airebo, perpetual
      attributes: full, newton on, ghost
      pair build: full/bin/ghost
      stencil: full/ghost/bin/2d
      bin: standard
Setting up cg style minimization ...
  Unit style    : metal
  Current step  : 0
WARNING: Energy due to 1 extra global DOFs will be included in minimizer energies
Per MPI rank memory allocation (min/avg/max) = 4.884 | 4.884 | 4.884 Mbytes
Step Temp E_pair E_mol TotEng Press Volume 
       0            0    8500.8695            0    8500.8695     40982191         1600 
    5000            0   -2896.6103            0   -2896.6103    170858.43    1981.5597 
Loop time of 3.91112 on 36 procs for 5000 steps with 610 atoms

99.6% CPU use with 36 MPI tasks x 1 OpenMP threads

Minimization stats:
  Stopping criterion = max iterations
  Energy initial, next-to-last, final = 
      8500.86952145072   -2896.3097275966  -2896.61033822306
  Force two-norm initial, final = 101876.62 400.29543
  Force max component initial, final = 81853.036 379.76909
  Final line search alpha, max atom move = 6.0348432e-06 0.0022918469
  Iterations, force evaluations = 5000 5000

MPI task timing breakdown:
Section |  min time  |  avg time  |  max time  |%varavg| %total
---------------------------------------------------------------
Pair    | 1.3121     | 2.1559     | 3.1983     |  34.0 | 55.12
Neigh   | 0.0071549  | 0.0077571  | 0.00847    |   0.4 |  0.20
Comm    | 0.48315    | 1.4375     | 2.2628     |  39.1 | 36.75
Output  | 6.6335e-05 | 6.8366e-05 | 7.7213e-05 |   0.0 |  0.00
Modify  | 0.00070087 | 0.00078916 | 0.00098664 |   0.0 |  0.02
Other   |            | 0.3091     |            |       |  7.90

Nlocal:        16.9444 ave          22 max          13 min
Histogram: 1 4 2 10 4 9 3 0 2 1
Nghost:        292.778 ave         303 max         279 min
Histogram: 1 0 7 2 3 5 6 7 0 5
Neighs:              0 ave           0 max           0 min
Histogram: 36 0 0 0 0 0 0 0 0 0
FullNghs:      2413.72 ave        3208 max        1850 min
Histogram: 5 2 5 6 7 5 1 2 0 3

Total # of neighbors = 86894
Ave neighs/atom = 142.44918
Neighbor list builds = 18
Dangerous builds = 0
System init for write_data ...
Total wall time: 0:00:04
