LAMMPS (7 Jan 2022)
OMP_NUM_THREADS environment is not set. Defaulting to 1 thread. (src/src/comm.cpp:98)
  using 1 OpenMP thread(s) per MPI task
#2024-09-04 12:48:42.605058
log log.mac
