(written by ASE)

610 atoms
1 atom types

0.0                      40.0 xlo xhi
0.0                      40.0  ylo yhi
0.0                      0.2  zlo zhi

Masses

1 12.011

Atoms # atomic

     1   1      34.258632485374861      8.8246297034576351                       0
     2   1      18.709963758759024      37.262940948316498                       0
     3   1      20.434306491891803      10.380073433254204                       0
     4   1      15.214845890800364      34.036696479558977                       0
     5   1      22.368732780142064      34.191435196808214                       0
     6   1      37.397510574636279      21.729529369778504                       0
     7   1       13.90298636154759      15.879983192780154                       0
     8   1      34.775589834763174      29.115364092780855                       0
     9   1      19.028891864864995      7.1120443795211763                       0
    10   1      31.954294098307258      18.627147765408235                       0
    11   1      14.647550702099515      30.102040100151875                       0
    12   1      22.326812142168396      20.041730336044697                       0
    13   1      0.3770437635841617     0.92621345240463171                       0
    14   1      13.361106382319923      27.789605789884373                       0
    15   1      5.1504306748743467      3.3207383355077269                       0
    16   1      39.806498203717645      23.951917936705446                       0
    17   1      10.307389087206298      22.409790759402934                       0
    18   1      1.8194777782141225      8.2864193323349546                       0
    19   1      16.741572355212433      14.010428342023943                       0
    20   1      22.968521914384471      24.351169384628268                       0
    21   1      38.161466073419604      13.512536831966102                       0
    22   1      12.612356033360372      38.943418839297998                       0
    23   1      32.955793667246859      26.812402372303236                       0
    24   1      1.3421325916341909      36.900672166822929                       0
    25   1      6.4027907540203888      14.650917189405245                       0
    26   1        6.62969094541487      32.946352816639845                       0
    27   1      38.501544032350175      4.7512735514059123                       0
    28   1      8.6818604207832948       1.711804891096671                       0
    29   1      38.901316173525863      18.618264368267511                       0
    30   1      33.066092632652023      6.3866406459444969                       0
    31   1      33.417245332913161      25.217814690648957                       0
    32   1      11.933082951858701      4.1084004129416085                       0
    33   1      6.4582030978787941      11.616165828793793                       0
    34   1      1.7476145689683698      3.6601274480983514                       0
    35   1      2.7993352297320984      12.695711426168902                       0
    36   1      33.242921287577275      17.864559735932751                       0
    37   1      18.327901772202484      28.988981467375211                       0
    38   1      2.7661564534590255      26.151154289263332                       0
    39   1      23.717404179855471      21.944244112416058                       0
    40   1      19.019859728785974      31.353228152375291                       0
    41   1      6.4445204369657461      35.942785085535519                       0
    42   1      34.579602138359974      26.758545787462978                       0
    43   1       9.372393586381591      7.1928330389835038                       0
    44   1      36.071585603401118      19.471198519862845                       0
    45   1      30.333280102906855      34.770250600550831                       0
    46   1      10.739907158525899     0.99790137832535653                       0
    47   1      7.0676182128110865      18.524167669289429                       0
    48   1      36.671950774627824      10.297562678708712                       0
    49   1      36.445549374259571       3.338986197630982                       0
    50   1      28.727369825285187      13.026516110877612                       0
    51   1       2.904473331136046      35.542265269728858                       0
    52   1      37.671899126009635      29.549011102505993                       0
    53   1       27.83732120128866      29.580131445529677                       0
    54   1      10.688470115141225      8.1618631523027183                       0
    55   1       9.897254304570783      23.544893151048644                       0
    56   1      34.429639986820781       5.937455114036152                       0
    57   1      39.817609506743111      32.914893246114417                       0
    58   1      24.976135745062386      31.458762311413565                       0
    59   1      20.707997513784026      14.276454264100146                       0
    60   1      20.266183276960049      39.265623805867534                       0
    61   1      27.418073400401703      5.6766802045521425                       0
    62   1         29.875078551268      30.608695591792241                       0
    63   1      19.027291342428629      18.763255567471312                       0
    64   1      33.302453438337032      30.692627151253458                       0
    65   1      26.871353495458052      26.638843383676431                       0
    66   1      15.728016868460832      36.679322375966834                       0
    67   1      30.575795317874359       11.29184985890992                       0
    68   1      25.358322621976939      27.411136009924334                       0
    69   1      22.762501869965938      23.137166775827755                       0
    70   1      12.746744962450469      14.044279708880616                       0
    71   1     0.75161884785432065      18.273097063703744                       0
    72   1      28.617878699014561      15.594216114547329                       0
    73   1      25.454468824594315      25.068277747832415                       0
    74   1       39.72016311385363      34.303424705345542                       0
    75   1      23.852496798669964      12.820671659855453                       0
    76   1       27.40859659468677      19.333599662710689                       0
    77   1      38.993913090229732      15.972554163944274                       0
    78   1      31.655378914792735      27.306822226443558                       0
    79   1      5.6623065153555041     0.95743998604223002                       0
    80   1      28.233963907581554      27.035676465647661                       0
    81   1      29.050621488796576      11.159997101029893                       0
    82   1      21.396929943428997      21.178599954385511                       0
    83   1      15.075855778552242      39.437881389721383                       0
    84   1      39.314863718822522      14.462447226549365                       0
    85   1      33.878090135130833      31.851670703205279                       0
    86   1      18.251739874823979      25.544655879118807                       0
    87   1      27.365652202381842       24.76031666007675                       0
    88   1      22.979179719404975       4.415885572435263                       0
    89   1      23.074741289177645      26.612829848816475                       0
    90   1      36.831138031897297      25.318167209489111                       0
    91   1       25.83148169675858      3.0805657862955016                       0
    92   1      30.797934088550562      23.204109456828057                       0
    93   1      22.575562719436416      2.7138350963730229                       0
    94   1      38.585315046875927      24.502245238849937                       0
    95   1      30.727123527476842      15.391012917053143                       0
    96   1       12.79702994836963       32.08156606559939                       0
    97   1      38.391886477505714      31.194177662030622                       0
    98   1      13.899546579735361      7.0539253783407396                       0
    99   1      13.729727001192833      20.462156670187625                       0
   100   1      14.879320083403883      25.204084524218082                       0
   101   1      7.8802479250717328      39.920140448848912                       0
   102   1      8.2664613215442984      12.864835536014162                       0
   103   1      17.370069550656254      9.2046693634387733                       0
   104   1      15.806821949149118      18.709998974916815                       0
   105   1      32.983010488464018     0.70086547708929192                       0
   106   1      7.5216670023063603      27.376585899470864                       0
   107   1      20.526876375506422      3.4766334027479084                       0
   108   1      36.638390894729056      5.7528719570751008                       0
   109   1      17.111700550992609      37.675768363348112                       0
   110   1      39.594153504346949        25.4097502353534                       0
   111   1      22.645511449526609      39.197619283283906                       0
   112   1      5.8657786021601455      37.256087027127109                       0
   113   1      5.5765557207093641       32.32389968686207                       0
   114   1      10.340935968449934      25.114032966892768                       0
   115   1      21.969668810005295        17.3080037111656                       0
   116   1      1.0868696291016633      23.001022853065081                       0
   117   1      9.0632357704075481       36.02194250850048                       0
   118   1      24.919578927724789      7.6699103496430032                       0
   119   1      31.839134280558437      4.9707243124957179                       0
   120   1      29.923548789200073       25.66264583113762                       0
   121   1      11.423896311906695      34.930454593121155                       0
   122   1      26.596011370797438      10.598458197751706                       0
   123   1      3.7982084520215365     0.93365919091827454                       0
   124   1      4.1293988967459327      14.057004831751478                       0
   125   1      21.227916735564829      31.456182287021292                       0
   126   1      24.164096042519692      36.660478527836922                       0
   127   1      13.257092827820944     0.24401245940560479                       0
   128   1      7.5615314342316697      2.4506585581692875                       0
   129   1      8.3049732995461625      34.386063555088427                       0
   130   1      6.0171130928170413      2.1363617877544838                       0
   131   1      19.891569583226314      21.504791361867905                       0
   132   1       39.37477188502168     0.32563826919276728                       0
   133   1      28.946301124871173      14.271397748648731                       0
   134   1       19.00707659480792      13.715885682483933                       0
   135   1      34.474163004497889      12.918542583579029                       0
   136   1       15.12497860445511      27.884249602154565                       0
   137   1      3.9005229107949013      11.443412406382226                       0
   138   1      22.535384271067159      15.593475194024919                       0
   139   1      21.081908330421228      6.8756684832674475                       0
   140   1      3.6548057192030381      6.6181677367671332                       0
   141   1      5.5949593731813962      27.030063788056154                       0
   142   1      16.202045253871361      38.874972238578202                       0
   143   1      29.984222057850204      39.123800931725739                       0
   144   1      32.230290502874894      16.854241530301909                       0
   145   1      17.825824551123482      23.827017005670186                       0
   146   1      7.5356329140425382      25.753163499264357                       0
   147   1      18.346848236009386      33.610779084879411                       0
   148   1      13.384609285836827      9.0986658836656389                       0
   149   1      31.446393059064555      39.571150321876623                       0
   150   1      27.399049513339421      37.969991138408844                       0
   151   1      26.186157081552931      8.7018688429789748                       0
   152   1      11.089833755856917      17.466771689072505                       0
   153   1      25.983863441249476      4.5798817537526837                       0
   154   1     0.78091038785779165      13.674463832252698                       0
   155   1      10.618752378247978      37.283990773446362                       0
   156   1      34.618524286159911        34.3760914838088                       0
   157   1      38.843292238948386      8.6696746632055657                       0
   158   1     0.43073535044614086      21.350553315050519                       0
   159   1      18.059540959136477      16.755416097449206                       0
   160   1      23.174718468543883      6.8279600768077531                       0
   161   1      14.602285887130538      8.7729912759094439                       0
   162   1      16.915359093973823      20.520914568662274                       0
   163   1      8.2233449840641537      5.4222342132438905                       0
   164   1      1.3194546400632934      15.158487795612734                       0
   165   1     0.87214928049727192      24.967858934301937                       0
   166   1       36.15195641997682      36.170227665484965                       0
   167   1      15.023161495965374      14.180761153953458                       0
   168   1      7.6095881611123684      23.496374101638242                       0
   169   1       35.19090459711218      25.428562183367593                       0
   170   1      9.7054803332221837      10.030080449367906                       0
   171   1       30.41073831841571      20.550527199729551                       0
   172   1      3.8213944707564362      36.856031504001876                       0
   173   1      11.899525372034979      6.4109541249480495                       0
   174   1      35.286776982750609      7.0212850653978842                       0
   175   1      31.397611813106813      7.1291513099340031                       0
   176   1      19.548707314733932      30.262933205103625                       0
   177   1      25.550581311772504      6.3496273853925622                       0
   178   1      12.936195169766487      16.967303028589761                       0
   179   1      10.464347435860116      14.287344006333926                       0
   180   1       29.22661360583394      31.948270335628045                       0
   181   1      3.2454786013330006      19.151312772169536                       0
   182   1      34.964365717480305       30.40882726602451                       0
   183   1      39.527395554178746      27.181333898754229                       0
   184   1      11.681906019994685      8.9596546687358369                       0
   185   1      38.138471407903836        39.8633631228208                       0
   186   1      1.7237018268522863       35.01871744077269                       0
   187   1      23.673553723565689      1.7976572664912327                       0
   188   1      20.641903883163785      2.1495098367153531                       0
   189   1      26.107253629461148      23.994215891348428                       0
   190   1      17.430499146195181      30.395601439191118                       0
   191   1      29.097513865464229      7.2789172148246051                       0
   192   1      35.825128363720637      8.9825372435069628                       0
   193   1      27.048381831122569    0.037370313714712999                       0
   194   1      24.281669721631353       27.97282794831737                       0
   195   1      10.190137067417897      39.885390614631014                       0
   196   1      0.6200715554515801      30.203445367410943                       0
   197   1      31.280320002582606      13.692283551759768                       0
   198   1      38.476050114950532        38.3047972332459                       0
   199   1      15.270854428043297     0.71192912068376302                       0
   200   1      4.4606271808015929      16.148965638447706                       0
   201   1      9.1485023048462679      18.413542057354476                       0
   202   1      11.762515938279922      12.433024247757626                       0
   203   1      31.415624531090881      28.572645350789653                       0
   204   1      15.202538259754167      38.018446066668211                       0
   205   1      10.146171940724704      26.707399193254489                       0
   206   1      27.194514570991927      33.605009856987024                       0
   207   1       8.752474167866481      14.876337335133339                       0
   208   1      26.900855302426265      13.413986695578576                       0
   209   1     0.39643063571237036      32.461628749976576                       0
   210   1      36.503008536626254      38.723785893983198                       0
   211   1      35.820785901582362      14.054030264733374                       0
   212   1      20.905625924527136      37.201799559628938                       0
   213   1      4.3115076072486325      38.140597868723695                       0
   214   1      24.648149325652227      20.772196419502471                       0
   215   1      18.112923214052131      1.8043384546974073                       0
   216   1      22.826766417372205      18.457763682350077                       0
   217   1      19.893032191467192      15.946867966994361                       0
   218   1       4.977708184687839      19.952127556998413                       0
   219   1      5.5384113876200924       7.410170863702179                       0
   220   1      11.519933897953663      27.525378291946989                       0
   221   1      26.976298614500887      32.249375321466729                       0
   222   1      3.0548770460270713      20.630382797563136                       0
   223   1      39.846773973646023      3.2603471866241041                       0
   224   1      19.123027165660915      4.7502502270589808                       0
   225   1      29.734589246799189      9.6890583714218117                       0
   226   1      9.2573864502544154      4.3186150472101437                       0
   227   1      32.549986961157323      35.009089531557969                       0
   228   1      29.562960349052894      33.548260980901091                       0
   229   1      32.195661805117822      36.262194965084653                       0
   230   1      32.929665454284212      4.3989728249095039                       0
   231   1      34.327770306905975      19.401135787996363                       0
   232   1      2.4042564119900645      11.378464557460134                       0
   233   1      6.4151883892395523       9.554847774326344                       0
   234   1      4.8455205031967674       39.26332868044225                       0
   235   1      11.369274282623664       2.686130713846997                       0
   236   1      3.4338987020733125      28.453371983982549                       0
   237   1      3.2821044791768372       15.48199223476399                       0
   238   1      20.189652100351466      35.879426042639764                       0
   239   1      10.629744370057516      3.9599275901849174                       0
   240   1      3.8021332099331229      9.2397729843251284                       0
   241   1      3.4130689933414082      4.8046911806697246                       0
   242   1      21.667583810541075      33.105427943508495                       0
   243   1      18.397694092188068      20.528806762094401                       0
   244   1      15.131037262075058      2.4938503473969664                       0
   245   1      20.118586398168912      24.123314314625581                       0
   246   1      24.617677013806507      16.341994567650321                       0
   247   1       37.10803615986071      11.576474101970579                       0
   248   1      35.514333562025627      39.873209461858757                       0
   249   1      6.3099871499634208      20.433399198148564                       0
   250   1      5.8121602262086913      30.268922012982358                       0
   251   1      29.812527444988575      19.090346347182255                       0
   252   1      21.249479690081682      29.073470898121844                       0
   253   1      38.630377078478844      21.088277484111977                       0
   254   1      1.7530838657767456      27.540106965605379                       0
   255   1      25.578319142684826      38.409600038191286                       0
   256   1      25.544725682232286      35.430698080786478                       0
   257   1      26.100241984403276      22.490914365820434                       0
   258   1      29.647971028143616      17.572516581776341                       0
   259   1      1.5049952868432026     0.24649940112063007                       0
   260   1      16.812129630926293      25.679802730519235                       0
   261   1     0.24300587221575132      35.580985645325242                       0
   262   1      11.453499909906428      39.795991917197163                       0
   263   1      30.565718854730846     0.50089121512561618                       0
   264   1      7.4474318890669444      29.038058199117618                       0
   265   1    0.013550835004663142      3.4302055399179343                       0
   266   1      13.017765984251838      5.4555624937386726                       0
   267   1       21.25298820401655        16.1014432343792                       0
   268   1      0.9765770482970515      10.410377690057992                       0
   269   1      24.359976993246711    0.013476902516087463                       0
   270   1      18.446943978979856      3.5559852120242175                       0
   271   1      23.007043836803199      9.9584190082374811                       0
   272   1      12.420309239319565      23.091204711992191                       0
   273   1      4.2737024477009822       30.24512571377478                       0
   274   1       11.65478067947506      32.755545486000607                       0
   275   1      11.936687564797626      11.016450818778862                       0
   276   1      10.285043935356732      28.972496274783829                       0
   277   1      32.531474398283308      12.485754842564356                       0
   278   1      17.583941904444437      5.7101140589346633                       0
   279   1       22.77861641845081     0.53458702289210347                       0
   280   1      38.406890230156918      11.807351539873219                       0
   281   1       29.14047085761386       22.98984580785795                       0
   282   1      8.6487240173709026      28.216444656908877                       0
   283   1      35.822210794763485      11.413116004492005                       0
   284   1      29.299032055586078       27.61830614777427                       0
   285   1      24.571530538956694      10.007667058719804                       0
   286   1      31.093781659715884      32.172056204419746                       0
   287   1      13.388702129295943      3.1374190913255928                       0
   288   1      29.947637738740926      29.319325909598351                       0
   289   1      36.767782026585323      17.232153709042208                       0
   290   1       35.92678951088083       28.42612456619505                       0
   291   1      15.880523269964574      15.187995384507328                       0
   292   1      10.422493956852241      31.152035609185411                       0
   293   1      21.534443266992518      12.142982006839835                       0
   294   1      22.777659867839944      29.197760841070309                       0
   295   1      4.4047730530912022      27.660192115432988                       0
   296   1      27.063223635745224       2.493691009059229                       0
   297   1       23.96252210199831      19.250278377902422                       0
   298   1      1.1747495338994485      1.9119725317038139                       0
   299   1      30.556892064399609       36.38398390274957                       0
   300   1      22.059762543347379      8.2808076345296868                       0
   301   1      9.1731188728655191      8.6299664306086896                       0
   302   1      9.1696788283344013      24.685264133281002                       0
   303   1      26.039563035188174     0.98365062988083896                       0
   304   1      35.152941457940237      17.354182336667932                       0
   305   1      32.527582453967653      22.764498909759169                       0
   306   1      1.1097935884141874      5.2467254243712214                       0
   307   1      7.3290271341921587      6.3783442630999021                       0
   308   1      7.0486752959904475      16.932399307413046                       0
   309   1       23.66709554824147      17.375460073230098                       0
   310   1      21.251636712986919     0.69344723628568694                       0
   311   1      2.7272829203834226      16.934366756412143                       0
   312   1      35.050480405602997      20.642405544787302                       0
   313   1      13.314269639064866      36.919420167892014                       0
   314   1       39.80531540113774      28.912525428938174                       0
   315   1      17.041983924525951      7.9231051088336857                       0
   316   1      31.258785485942042      9.4671846978672924                       0
   317   1      15.612267934574016      4.8439161168709655                       0
   318   1      33.807042910247816      36.356985005788957                       0
   319   1      12.179786087926168      25.544889389403668                       0
   320   1      26.803431688660297      15.234119463425891                       0
   321   1      38.574443449617178      26.145072075049036                       0
   322   1      8.0514753668983232      33.096613116673822                       0
   323   1       17.13543564446104      33.922727863142626                       0
   324   1      29.611118247314884      3.7104526746308375                       0
   325   1      37.424866811891775      2.0547819094684039                       0
   326   1      33.594914459525008      21.829438139634789                       0
   327   1      34.535573927241913      37.658950779754313                       0
   328   1      27.863713432442026      1.2319975197493704                       0
   329   1      23.570687600221106      31.142723455054853                       0
   330   1      3.6999088562106097      34.493928026815972                       0
   331   1      31.453835535856474      21.413020339308364                       0
   332   1      2.1996240782800625      6.4955719572174209                       0
   333   1      15.831774527714288      31.603218855019595                       0
   334   1      8.4449207816409242      30.435843737425952                       0
   335   1      21.084834862301616      27.851902752632157                       0
   336   1      35.206235734568743      1.7808030605297054                       0
   337   1      35.151442405747162      32.338502342255666                       0
   338   1      15.669729791239767      19.949048709032336                       0
   339   1      4.7728725384614368      24.785540888780005                       0
   340   1      21.396506288688141      23.732446616017423                       0
   341   1      5.6825824204691644      17.324185240186285                       0
   342   1      12.179193258450422      19.259167435207267                       0
   343   1      28.718953225816488      37.517259384386477                       0
   344   1      22.656559465285874      36.480833474448687                       0
   345   1      2.4886434843408267     0.99204614877848485                       0
   346   1      28.879371883326797      2.5688018005204727                       0
   347   1      35.625627201500507      22.563868564029836                       0
   348   1      8.7952827566194678      20.311383635716489                       0
   349   1      12.251185020296468      1.6701155535010903                       0
   350   1      5.9058690944670067      28.524654479538917                       0
   351   1      7.9436023874218709     0.58000989292356309                       0
   352   1      15.357718906513522       22.37310730154881                       0
   353   1       16.61678887208414      0.8267506243464906                       0
   354   1      14.850736777057637      3.8847459996559763                       0
   355   1      14.084064667626418       13.30382458911286                       0
   356   1      32.054830085806799      25.154796786350207                       0
   357   1      2.0029229619056421      31.151119421890773                       0
   358   1      32.382281616410118      32.839219330289225                       0
   359   1       23.54985858743483      33.319952545120813                       0