(written by ASE)

50 atoms
1 atom types

0.0      12.300000000000001  xlo xhi
0.0      10.652112466548596  ylo yhi
0.0                      40  zlo zhi
    -6.1500000000000004                       0                       0  xy xz yz

Masses

     1      12.010999996910238 # C

Atoms # atomic

     1   1                       0                       0                      20
     2   1                    1.23     0.71014083110323967                      20
     3   1                   -1.23      2.1304224933097191                      20
     4   1                       0      2.8405633244129587                      20
     5   1                   -2.46      4.2608449866194382                      20
     6   1                   -1.23      4.9709858177226778                      20
     7   1     -3.6899999999999999      6.3912674799291569                      20
     8   1                   -2.46      7.1014083110323964                      20
     9   1     -4.9199999999999999      8.5216899732388764                      20
    10   1     -3.6899999999999999      9.2318308043421169                      20
    11   1                    2.46                       0                      20
    12   1      3.6899999999999999     0.71014083110323967                      20
    13   1                    1.23      2.1304224933097191                      20
    14   1                    2.46      2.8405633244129587                      20
    15   1                       0      4.2608449866194382                      20
    16   1                    1.23      4.9709858177226778                      20
    17   1                   -1.23      6.3912674799291569                      20
    18   1                       0      7.1014083110323964                      20
    19   1                   -2.46      8.5216899732388764                      20
    20   1                   -1.23      9.2318308043421169                      20
    21   1      4.9199999999999999                       0                      20
    22   1      6.1500000000000004     0.71014083110323967                      20
    23   1      3.6899999999999999      2.1304224933097191                      20
    24   1      4.9199999999999999      2.8405633244129587                      20
    25   1                    2.46      4.2608449866194382                      20
    26   1      3.6899999999999999      4.9709858177226778                      20
    27   1                    1.23      6.3912674799291569                      20
    28   1                    2.46      7.1014083110323964                      20
    29   1                       0      8.5216899732388764                      20
    30   1                    1.23      9.2318308043421169                      20
    31   1      7.3799999999999999                       0                      20
    32   1      8.6099999999999994     0.71014083110323967                      20
    33   1      6.1500000000000004      2.1304224933097191                      20
    34   1      7.3800000000000008      2.8405633244129587                      20
    35   1      4.9199999999999999      4.2608449866194382                      20
    36   1      6.1500000000000004      4.9709858177226778                      20
    37   1      3.6899999999999999      6.3912674799291569                      20
    38   1      4.9199999999999999      7.1014083110323964                      20
    39   1                    2.46      8.5216899732388764                      20
    40   1      3.6899999999999999      9.2318308043421169                      20
    41   1      9.8399999999999999                       0                      20
    42   1                   11.07     0.71014083110323967                      20
    43   1      8.6099999999999994      2.1304224933097191                      20
    44   1      9.8399999999999999      2.8405633244129587                      20
    45   1      7.3799999999999999      4.2608449866194382                      20
    46   1      8.6099999999999994      4.9709858177226778                      20
    47   1      6.1500000000000004      6.3912674799291569                      20
    48   1      7.3800000000000008      7.1014083110323964                      20
    49   1      4.9199999999999999      8.5216899732388764                      20
    50   1      6.1500000000000004      9.2318308043421169                      20
