ITEM: TIMESTEP
0
ITEM: NUMBER OF ATOMS
448
ITEM: BOX BOUNDS pp pp pp
0.0000000000000000e+00 3.4079999999999998e+01
0.0000000000000000e+00 3.4433199999999999e+01
0.0000000000000000e+00 2.0000000000000000e+01
ITEM: ATOMS id type x y z fx fy fz
1 1      0.00862454      0.00000000      0.00506135     -0.53943545     -0.00112805      0.00000000
2 1      0.71000000      1.22976000      0.00000000      0.10217422      0.10569796      0.00000000
3 1      2.13000000      1.22976000      0.00000000      0.01405838      0.02208945      0.00000000
4 1      2.84000000      0.00000000      0.00000000     -0.00077747     -0.00107264      0.00000000
5 1      0.00000000      2.45951000      0.00000000      0.00314562     -0.01400579      0.00000000
6 1      0.71000000      3.68927000      0.00000000      0.00002667     -0.00027323      0.00000000
7 1      2.13000000      3.68927000      0.00000000     -0.00002417     -0.00027593      0.00000000
8 1      2.84000000      2.45951000      0.00000000      0.00002665      0.00027339      0.00000000
9 1      0.00000000      4.91902000      0.00000000     -0.00004125      0.00029384      0.00000000
10 1      0.71000000      6.14878000      0.00000000     -0.00013049     -0.00000037      0.00000000
11 1      2.13000000      6.14878000      0.00000000      0.00013090     -0.00000068      0.00000000
12 1      2.84000000      4.91902000      0.00000000      0.00004268      0.00029138      0.00000000
13 1      0.00000000      7.37854000      0.00000000     -0.00004322     -0.00029388      0.00000000
14 1      0.71000000      8.60829000      0.00000000      0.00002669      0.00027333      0.00000000
15 1      2.13000000      8.60829000      0.00000000     -0.00002664      0.00027328      0.00000000
16 1      2.84000000      7.37854000      0.00000000      0.00004334     -0.00029404      0.00000000
17 1      0.00000000      9.83805000      0.00000000     -0.00009326     -0.00019163      0.00000000
18 1      0.71000000     11.06780000      0.00000000     -0.00061994      0.00134632      0.00000000
19 1      2.13000000     11.06780000      0.00000000      0.00061994      0.00134632      0.00000000
20 1      2.84000000      9.83805000      0.00000000      0.00009326     -0.00019163      0.00000000
21 1      0.00000000     12.29760000      0.00000000     -0.00023446     -0.00283578      0.00000000
22 1      0.71000000     13.52730000      0.00000000      0.00015119      0.00273389      0.00000000
23 1      2.13000000     13.52730000      0.00000000     -0.00015119      0.00273389      0.00000000
24 1      2.84000000     12.29760000      0.00000000      0.00023446     -0.00283578      0.00000000
25 1      0.00000000     14.75710000      0.00000000     -0.00015121     -0.00273371      0.00000000
26 1      0.71000000     15.98680000      0.00000000      0.00015121      0.00273352      0.00000000
27 1      2.13000000     15.98680000      0.00000000     -0.00015121      0.00273352      0.00000000
28 1      2.84000000     14.75710000      0.00000000      0.00015121     -0.00273371      0.00000000
29 1      0.00000000     17.21660000      0.00000000     -0.00015117     -0.00273393      0.00000000
30 1      0.71000000     18.44630000      0.00000000      0.00031769      0.00293787      0.00000000
31 1      2.13000000     18.44630000      0.00000000     -0.00031769      0.00293787      0.00000000
32 1      2.84000000     17.21660000      0.00000000      0.00015117     -0.00273393      0.00000000
33 1      0.00000000     19.67610000      0.00000000      0.00142409      0.00000000      0.00000000
34 1      0.71000000     20.90590000      0.00000000      0.00031769     -0.00293787      0.00000000
35 1      2.13000000     20.90590000      0.00000000     -0.00031769     -0.00293787      0.00000000
36 1      2.84000000     19.67610000      0.00000000     -0.00142409      0.00000000      0.00000000
37 1      0.00000000     22.13560000      0.00000000     -0.00015117      0.00273394      0.00000000
38 1      0.71000000     23.36540000      0.00000000      0.00015121     -0.00273348      0.00000000
39 1      2.13000000     23.36540000      0.00000000     -0.00015121     -0.00273348      0.00000000
40 1      2.84000000     22.13560000      0.00000000      0.00015117      0.00273394      0.00000000
41 1      0.00000000     24.59510000      0.00000000     -0.00015121      0.00273386      0.00000000
42 1      0.71000000     25.82490000      0.00000000      0.00015125     -0.00273383      0.00000000
43 1      2.13000000     25.82490000      0.00000000     -0.00015120     -0.00273378      0.00000000
44 1      2.84000000     24.59510000      0.00000000      0.00015121      0.00273386      0.00000000
45 1      0.00000000     27.05460000      0.00000000     -0.00015110      0.00273348      0.00000000
46 1      0.71000000     28.28440000      0.00000000      0.00015152     -0.00273361      0.00000000
47 1      2.13000000     28.28440000      0.00000000     -0.00015112     -0.00273330      0.00000000
48 1      2.84000000     27.05460000      0.00000000      0.00015122      0.00273364      0.00000000
49 1      0.00000000     29.51410000      0.00000000     -0.00031562      0.00293779      0.00000000
50 1      0.71000000     30.74390000      0.00000000     -0.00142409     -0.00000020      0.00000000
51 1      2.13000000     30.74390000      0.00000000      0.00142659      0.00000250      0.00000000
52 1      2.84000000     29.51410000      0.00000000      0.00031705      0.00294025      0.00000000
53 1      0.00000000     31.97370000      0.00000000      0.00285465      0.01134420      0.00000000
54 1      0.71000000     33.20340000      0.00000000      0.10230613     -0.10316448      0.00000000
55 1      2.13000000     33.20340000      0.00000000      0.01391756     -0.01961477      0.00000000
56 1      2.84000000     31.97370000      0.00000000      0.00031766     -0.00293801      0.00000000
57 1      4.26000000      0.00000000      0.00000000      0.00077546     -0.00107264      0.00000000
58 1      4.97000000      1.22976000      0.00000000      0.00010132     -0.00037792      0.00000000
59 1      6.39000000      1.22976000      0.00000000     -0.00011168     -0.00037578      0.00000000
60 1      7.10000000      0.00000000      0.00000000     -0.00077842     -0.00107264      0.00000000
61 1      4.26000000      2.45951000      0.00000000     -0.00003443      0.00026769      0.00000000
62 1      4.97000000      3.68927000      0.00000000      0.00002509     -0.00027470      0.00000000
63 1      6.39000000      3.68927000      0.00000000     -0.00002669     -0.00027331      0.00000000
64 1      7.10000000      2.45951000      0.00000000      0.00002647      0.00027330      0.00000000
65 1      4.26000000      4.91902000      0.00000000     -0.00004395      0.00029278      0.00000000
66 1      4.97000000      6.14878000      0.00000000     -0.00013096     -0.00000026      0.00000000
67 1      6.39000000      6.14878000      0.00000000      0.00013070     -0.00000020      0.00000000
68 1      7.10000000      4.91902000      0.00000000      0.00004310      0.00029364      0.00000000
69 1      4.26000000      7.37854000      0.00000000     -0.00004338     -0.00029406      0.00000000
70 1      4.97000000      8.60829000      0.00000000      0.00002662      0.00027331      0.00000000
71 1      6.39000000      8.60829000      0.00000000     -0.00002665      0.00027336      0.00000000
72 1      7.10000000      7.37854000      0.00000000      0.00004332     -0.00029388      0.00000000
73 1      4.26000000      9.83805000      0.00000000     -0.00009326     -0.00019163      0.00000000
74 1      4.97000000     11.06780000      0.00000000     -0.00061994      0.00134632      0.00000000
75 1      6.39000000     11.06780000      0.00000000      0.00061994      0.00134632      0.00000000
76 1      7.10000000      9.83805000      0.00000000      0.00009326     -0.00019163      0.00000000
77 1      4.26000000     12.29760000      0.00000000     -0.00023446     -0.00283578      0.00000000
78 1      4.97000000     13.52730000      0.00000000      0.00015119      0.00273389      0.00000000
79 1      6.39000000     13.52730000      0.00000000     -0.00015119      0.00273389      0.00000000
80 1      7.10000000     12.29760000      0.00000000      0.00023446     -0.00283578      0.00000000
81 1      4.26000000     14.75710000      0.00000000     -0.00015121     -0.00273371      0.00000000
82 1      4.97000000     15.98680000      0.00000000      0.00015121      0.00273352      0.00000000
83 1      6.39000000     15.98680000      0.00000000     -0.00015121      0.00273352      0.00000000
84 1      7.10000000     14.75710000      0.00000000      0.00015121     -0.00273371      0.00000000
85 1      4.26000000     17.21660000      0.00000000     -0.00015117     -0.00273393      0.00000000
86 1      4.97000000     18.44630000      0.00000000      0.00031769      0.00293787      0.00000000
87 1      6.39000000     18.44630000      0.00000000     -0.00031769      0.00293787      0.00000000
88 1      7.10000000     17.21660000      0.00000000      0.00015117     -0.00273393      0.00000000
89 1      4.26000000     19.67610000      0.00000000      0.00142409      0.00000000      0.00000000
90 1      4.97000000     20.90590000      0.00000000      0.00031769     -0.00293787      0.00000000
91 1      6.39000000     20.90590000      0.00000000     -0.00031769     -0.00293787      0.00000000
92 1      7.10000000     19.67610000      0.00000000     -0.00142409      0.00000000      0.00000000
93 1      4.26000000     22.13560000      0.00000000     -0.00015117      0.00273394      0.00000000
94 1      4.97000000     23.36540000      0.00000000      0.00015121     -0.00273348      0.00000000
95 1      6.39000000     23.36540000      0.00000000     -0.00015121     -0.00273348      0.00000000
96 1      7.10000000     22.13560000      0.00000000      0.00015117      0.00273394      0.00000000
97 1      4.26000000     24.59510000      0.00000000     -0.00015121      0.00273386      0.00000000
98 1      4.97000000     25.82490000      0.00000000      0.00015118     -0.00273380      0.00000000
99 1      6.39000000     25.82490000      0.00000000     -0.00015121     -0.00273386      0.00000000
100 1      7.10000000     24.59510000      0.00000000      0.00015121      0.00273386      0.00000000
101 1      4.26000000     27.05460000      0.00000000     -0.00015127      0.00273366      0.00000000
102 1      4.97000000     28.28440000      0.00000000      0.00015106     -0.00273372      0.00000000
103 1      6.39000000     28.28440000      0.00000000     -0.00015131     -0.00273378      0.00000000
104 1      7.10000000     27.05460000      0.00000000      0.00015121      0.00273348      0.00000000
105 1      4.26000000     29.51410000      0.00000000     -0.00031832      0.00293885      0.00000000
106 1      4.97000000     30.74390000      0.00000000     -0.00142566      0.00000127      0.00000000
107 1      6.39000000     30.74390000      0.00000000      0.00142407     -0.00000012      0.00000000
108 1      7.10000000     29.51410000      0.00000000      0.00031747      0.00293799      0.00000000
109 1      4.26000000     31.97370000      0.00000000     -0.00032545     -0.00293231      0.00000000
110 1      4.97000000     33.20340000      0.00000000      0.00024246      0.00285887      0.00000000
111 1      6.39000000     33.20340000      0.00000000     -0.00025282      0.00285674      0.00000000
112 1      7.10000000     31.97370000      0.00000000      0.00031749     -0.00293791      0.00000000
113 1      8.52000000      0.00000000      0.00000000      0.00077710     -0.00107264      0.00000000
114 1      9.23000000      1.22976000      0.00000000      0.00010969     -0.00037542      0.00000000
115 1     10.65000000      1.22976000      0.00000000     -0.00010991     -0.00037539      0.00000000
116 1     11.36000000      0.00000000      0.00000000     -0.00077747     -0.00107264      0.00000000
117 1      8.52000000      2.45951000      0.00000000     -0.00002693      0.00027330      0.00000000
118 1      9.23000000      3.68927000      0.00000000      0.00002656     -0.00027328      0.00000000
119 1     10.65000000      3.68927000      0.00000000     -0.00002667     -0.00027323      0.00000000
120 1     11.36000000      2.45951000      0.00000000      0.00002665      0.00027339      0.00000000
121 1      8.52000000      4.91902000      0.00000000     -0.00004343      0.00029376      0.00000000
122 1      9.23000000      6.14878000      0.00000000     -0.00013085     -0.00000003      0.00000000
123 1     10.65000000      6.14878000      0.00000000      0.00013085     -0.00000003      0.00000000
124 1     11.36000000      4.91902000      0.00000000      0.00004332      0.00029382      0.00000000
125 1      8.52000000      7.37854000      0.00000000     -0.00004332     -0.00029388      0.00000000
126 1      9.23000000      8.60829000      0.00000000      0.00002665      0.00027336      0.00000000
127 1     10.65000000      8.60829000      0.00000000     -0.00002665      0.00027336      0.00000000
128 1     11.36000000      7.37854000      0.00000000      0.00004332     -0.00029388      0.00000000
129 1      8.52000000      9.83805000      0.00000000     -0.00009326     -0.00019163      0.00000000
130 1      9.23000000     11.06780000      0.00000000     -0.00061994      0.00134632      0.00000000
131 1     10.65000000     11.06780000      0.00000000      0.00061994      0.00134632      0.00000000
132 1     11.36000000      9.83805000      0.00000000      0.00009326     -0.00019163      0.00000000
133 1      8.52000000     12.29760000      0.00000000     -0.00023446     -0.00283578      0.00000000
134 1      9.23000000     13.52730000      0.00000000      0.00015119      0.00273389      0.00000000
135 1     10.65000000     13.52730000      0.00000000     -0.00015119      0.00273389      0.00000000
136 1     11.36000000     12.29760000      0.00000000      0.00023446     -0.00283578      0.00000000
137 1      8.52000000     14.75710000      0.00000000     -0.00015121     -0.00273371      0.00000000
138 1      9.23000000     15.98680000      0.00000000      0.00015121      0.00273352      0.00000000
139 1     10.65000000     15.98680000      0.00000000     -0.00015121      0.00273352      0.00000000
140 1     11.36000000     14.75710000      0.00000000      0.00015121     -0.00273371      0.00000000
141 1      8.52000000     17.21660000      0.00000000     -0.00015117     -0.00273393      0.00000000
142 1      9.23000000     18.44630000      0.00000000      0.00031769      0.00293787      0.00000000
143 1     10.65000000     18.44630000      0.00000000     -0.00031769      0.00293787      0.00000000
144 1     11.36000000     17.21660000      0.00000000      0.00015117     -0.00273393      0.00000000
145 1      8.52000000     19.67610000      0.00000000      0.00142409      0.00000000      0.00000000
146 1      9.23000000     20.90590000      0.00000000      0.00031769     -0.00293787      0.00000000
147 1     10.65000000     20.90590000      0.00000000     -0.00031769     -0.00293787      0.00000000
148 1     11.36000000     19.67610000      0.00000000     -0.00142409      0.00000000      0.00000000
149 1      8.52000000     22.13560000      0.00000000     -0.00015117      0.00273394      0.00000000
150 1      9.23000000     23.36540000      0.00000000      0.00015121     -0.00273348      0.00000000
151 1     10.65000000     23.36540000      0.00000000     -0.00015121     -0.00273348      0.00000000
152 1     11.36000000     22.13560000      0.00000000      0.00015117      0.00273394      0.00000000
153 1      8.52000000     24.59510000      0.00000000     -0.00015121      0.00273386      0.00000000
154 1      9.23000000     25.82490000      0.00000000      0.00015121     -0.00273386      0.00000000
155 1     10.65000000     25.82490000      0.00000000     -0.00015121     -0.00273386      0.00000000
156 1     11.36000000     24.59510000      0.00000000      0.00015121      0.00273386      0.00000000
157 1      8.52000000     27.05460000      0.00000000     -0.00015121      0.00273348      0.00000000
158 1      9.23000000     28.28440000      0.00000000      0.00015117     -0.00273395      0.00000000
159 1     10.65000000     28.28440000      0.00000000     -0.00015117     -0.00273395      0.00000000
160 1     11.36000000     27.05460000      0.00000000      0.00015121      0.00273348      0.00000000
161 1      8.52000000     29.51410000      0.00000000     -0.00031780      0.00293787      0.00000000
162 1      9.23000000     30.74390000      0.00000000     -0.00142420     -0.00000015      0.00000000
163 1     10.65000000     30.74390000      0.00000000      0.00142409     -0.00000020      0.00000000
164 1     11.36000000     29.51410000      0.00000000      0.00031769      0.00293781      0.00000000
165 1      8.52000000     31.97370000      0.00000000     -0.00031795     -0.00293792      0.00000000
166 1      9.23000000     33.20340000      0.00000000      0.00025084      0.00285638      0.00000000
167 1     10.65000000     33.20340000      0.00000000     -0.00025106      0.00285634      0.00000000
168 1     11.36000000     31.97370000      0.00000000      0.00031766     -0.00293801      0.00000000
169 1     12.78000000      0.00000000      0.00000000      0.00077747     -0.00107264      0.00000000
170 1     13.49000000      1.22976000      0.00000000      0.00010991     -0.00037539      0.00000000
171 1     14.91000000      1.22976000      0.00000000     -0.00010991     -0.00037539      0.00000000
172 1     15.62000000      0.00000000      0.00000000     -0.00077747     -0.00107264      0.00000000
173 1     12.78000000      2.45951000      0.00000000     -0.00002665      0.00027339      0.00000000
174 1     13.49000000      3.68927000      0.00000000      0.00002667     -0.00027323      0.00000000
175 1     14.91000000      3.68927000      0.00000000     -0.00002667     -0.00027323      0.00000000
176 1     15.62000000      2.45951000      0.00000000      0.00002665      0.00027339      0.00000000
177 1     12.78000000      4.91902000      0.00000000     -0.00004332      0.00029382      0.00000000
178 1     13.49000000      6.14878000      0.00000000     -0.00013085     -0.00000003      0.00000000
179 1     14.91000000      6.14878000      0.00000000      0.00013085     -0.00000003      0.00000000
180 1     15.62000000      4.91902000      0.00000000      0.00004332      0.00029382      0.00000000
181 1     12.78000000      7.37854000      0.00000000     -0.00004332     -0.00029388      0.00000000
182 1     13.49000000      8.60829000      0.00000000      0.00002665      0.00027336      0.00000000
183 1     14.91000000      8.60829000      0.00000000     -0.00002665      0.00027336      0.00000000
184 1     15.62000000      7.37854000      0.00000000      0.00004332     -0.00029388      0.00000000
185 1     12.78000000      9.83805000      0.00000000     -0.00009326     -0.00019163      0.00000000
186 1     13.49000000     11.06780000      0.00000000     -0.00061994      0.00134632      0.00000000
187 1     14.91000000     11.06780000      0.00000000      0.00061994      0.00134632      0.00000000
188 1     15.62000000      9.83805000      0.00000000      0.00009326     -0.00019163      0.00000000
189 1     12.78000000     12.29760000      0.00000000     -0.00023446     -0.00283578      0.00000000
190 1     13.49000000     13.52730000      0.00000000      0.00015119      0.00273389      0.00000000
191 1     14.91000000     13.52730000      0.00000000     -0.00015119      0.00273389      0.00000000
192 1     15.62000000     12.29760000      0.00000000      0.00023446     -0.00283578      0.00000000
193 1     12.78000000     14.75710000      0.00000000     -0.00015121     -0.00273371      0.00000000
194 1     13.49000000     15.98680000      0.00000000      0.00015121      0.00273352      0.00000000
195 1     14.91000000     15.98680000      0.00000000     -0.00015121      0.00273352      0.00000000
196 1     15.62000000     14.75710000      0.00000000      0.00015121     -0.00273371      0.00000000
197 1     12.78000000     17.21660000      0.00000000     -0.00015117     -0.00273393      0.00000000
198 1     13.49000000     18.44630000      0.00000000      0.00031769      0.00293787      0.00000000
199 1     14.91000000     18.44630000      0.00000000     -0.00031769      0.00293787      0.00000000
200 1     15.62000000     17.21660000      0.00000000      0.00015117     -0.00273393      0.00000000
201 1     12.78000000     19.67610000      0.00000000      0.00142409      0.00000000      0.00000000
202 1     13.49000000     20.90590000      0.00000000      0.00031769     -0.00293787      0.00000000
203 1     14.91000000     20.90590000      0.00000000     -0.00031769     -0.00293787      0.00000000
204 1     15.62000000     19.67610000      0.00000000     -0.00142409      0.00000000      0.00000000
205 1     12.78000000     22.13560000      0.00000000     -0.00015117      0.00273394      0.00000000
206 1     13.49000000     23.36540000      0.00000000      0.00015121     -0.00273348      0.00000000
207 1     14.91000000     23.36540000      0.00000000     -0.00015121     -0.00273348      0.00000000
208 1     15.62000000     22.13560000      0.00000000      0.00015117      0.00273394      0.00000000
209 1     12.78000000     24.59510000      0.00000000     -0.00015121      0.00273386      0.00000000
210 1     13.49000000     25.82490000      0.00000000      0.00015121     -0.00273386      0.00000000
211 1     14.91000000     25.82490000      0.00000000     -0.00015121     -0.00273386      0.00000000
212 1     15.62000000     24.59510000      0.00000000      0.00015121      0.00273386      0.00000000
213 1     12.78000000     27.05460000      0.00000000     -0.00015121      0.00273348      0.00000000
214 1     13.49000000     28.28440000      0.00000000      0.00015117     -0.00273395      0.00000000
215 1     14.91000000     28.28440000      0.00000000     -0.00015117     -0.00273395      0.00000000
216 1     15.62000000     27.05460000      0.00000000      0.00015121      0.00273348      0.00000000
217 1     12.78000000     29.51410000      0.00000000     -0.00031769      0.00293781      0.00000000
218 1     13.49000000     30.74390000      0.00000000     -0.00142409     -0.00000020      0.00000000
219 1     14.91000000     30.74390000      0.00000000      0.00142409     -0.00000020      0.00000000
220 1     15.62000000     29.51410000      0.00000000      0.00031769      0.00293781      0.00000000
221 1     12.78000000     31.97370000      0.00000000     -0.00031766     -0.00293801      0.00000000
222 1     13.49000000     33.20340000      0.00000000      0.00025106      0.00285634      0.00000000
223 1     14.91000000     33.20340000      0.00000000     -0.00025106      0.00285634      0.00000000
224 1     15.62000000     31.97370000      0.00000000      0.00031766     -0.00293801      0.00000000
225 1     17.04000000      0.00000000      0.00000000      0.00077747     -0.00107264      0.00000000
226 1     17.75000000      1.22976000      0.00000000      0.00010991     -0.00037539      0.00000000
227 1     19.17000000      1.22976000      0.00000000     -0.00010991     -0.00037539      0.00000000
228 1     19.88000000      0.00000000      0.00000000     -0.00077747     -0.00107264      0.00000000
229 1     17.04000000      2.45951000      0.00000000     -0.00002665      0.00027339      0.00000000
230 1     17.75000000      3.68927000      0.00000000      0.00002667     -0.00027323      0.00000000
231 1     19.17000000      3.68927000      0.00000000     -0.00002667     -0.00027323      0.00000000
232 1     19.88000000      2.45951000      0.00000000      0.00002665      0.00027339      0.00000000
233 1     17.04000000      4.91902000      0.00000000     -0.00004332      0.00029382      0.00000000
234 1     17.75000000      6.14878000      0.00000000     -0.00013085     -0.00000003      0.00000000
235 1     19.17000000      6.14878000      0.00000000      0.00013085     -0.00000003      0.00000000
236 1     19.88000000      4.91902000      0.00000000      0.00004332      0.00029382      0.00000000
237 1     17.04000000      7.37854000      0.00000000     -0.00004332     -0.00029388      0.00000000
238 1     17.75000000      8.60829000      0.00000000      0.00002665      0.00027336      0.00000000
239 1     19.17000000      8.60829000      0.00000000     -0.00002665      0.00027336      0.00000000
240 1     19.88000000      7.37854000      0.00000000      0.00004332     -0.00029388      0.00000000
241 1     17.04000000      9.83805000      0.00000000     -0.00009326     -0.00019163      0.00000000
242 1     17.75000000     11.06780000      0.00000000     -0.00061994      0.00134632      0.00000000
243 1     19.17000000     11.06780000      0.00000000      0.00061994      0.00134632      0.00000000
244 1     19.88000000      9.83805000      0.00000000      0.00009326     -0.00019163      0.00000000
245 1     17.04000000     12.29760000      0.00000000     -0.00023446     -0.00283578      0.00000000
246 1     17.75000000     13.52730000      0.00000000      0.00015119      0.00273389      0.00000000
247 1     19.17000000     13.52730000      0.00000000     -0.00015119      0.00273389      0.00000000
248 1     19.88000000     12.29760000      0.00000000      0.00023446     -0.00283578      0.00000000
249 1     17.04000000     14.75710000      0.00000000     -0.00015121     -0.00273371      0.00000000
250 1     17.75000000     15.98680000      0.00000000      0.00015121      0.00273352      0.00000000
251 1     19.17000000     15.98680000      0.00000000     -0.00015121      0.00273352      0.00000000
252 1     19.88000000     14.75710000      0.00000000      0.00015121     -0.00273371      0.00000000
253 1     17.04000000     17.21660000      0.00000000     -0.00015117     -0.00273393      0.00000000
254 1     17.75000000     18.44630000      0.00000000      0.00031769      0.00293787      0.00000000
255 1     19.17000000     18.44630000      0.00000000     -0.00031769      0.00293787      0.00000000
256 1     19.88000000     17.21660000      0.00000000      0.00015117     -0.00273393      0.00000000
257 1     17.04000000     19.67610000      0.00000000      0.00142409      0.00000000      0.00000000
258 1     17.75000000     20.90590000      0.00000000      0.00031769     -0.00293787      0.00000000
259 1     19.17000000     20.90590000      0.00000000     -0.00031769     -0.00293787      0.00000000
260 1     19.88000000     19.67610000      0.00000000     -0.00142409      0.00000000      0.00000000
261 1     17.04000000     22.13560000      0.00000000     -0.00015117      0.00273394      0.00000000
262 1     17.75000000     23.36540000      0.00000000      0.00015121     -0.00273348      0.00000000
263 1     19.17000000     23.36540000      0.00000000     -0.00015121     -0.00273348      0.00000000
264 1     19.88000000     22.13560000      0.00000000      0.00015117      0.00273394      0.00000000
265 1     17.04000000     24.59510000      0.00000000     -0.00015121      0.00273386      0.00000000
266 1     17.75000000     25.82490000      0.00000000      0.00015121     -0.00273386      0.00000000
267 1     19.17000000     25.82490000      0.00000000     -0.00015121     -0.00273386      0.00000000
268 1     19.88000000     24.59510000      0.00000000      0.00015121      0.00273386      0.00000000
269 1     17.04000000     27.05460000      0.00000000     -0.00015121      0.00273348      0.00000000
270 1     17.75000000     28.28440000      0.00000000      0.00015117     -0.00273395      0.00000000
271 1     19.17000000     28.28440000      0.00000000     -0.00015117     -0.00273395      0.00000000
272 1     19.88000000     27.05460000      0.00000000      0.00015121      0.00273348      0.00000000
273 1     17.04000000     29.51410000      0.00000000     -0.00031769      0.00293781      0.00000000
274 1     17.75000000     30.74390000      0.00000000     -0.00142409     -0.00000020      0.00000000
275 1     19.17000000     30.74390000      0.00000000      0.00142409     -0.00000020      0.00000000
276 1     19.88000000     29.51410000      0.00000000      0.00031769      0.00293781      0.00000000
277 1     17.04000000     31.97370000      0.00000000     -0.00031766     -0.00293801      0.00000000
278 1     17.75000000     33.20340000      0.00000000      0.00025106      0.00285634      0.00000000
279 1     19.17000000     33.20340000      0.00000000     -0.00025106      0.00285634      0.00000000
280 1     19.88000000     31.97370000      0.00000000      0.00031766     -0.00293801      0.00000000
281 1     21.30000000      0.00000000      0.00000000      0.00077747     -0.00107264      0.00000000
282 1     22.01000000      1.22976000      0.00000000      0.00010991     -0.00037539      0.00000000
283 1     23.43000000      1.22976000      0.00000000     -0.00010991     -0.00037539      0.00000000
284 1     24.14000000      0.00000000      0.00000000     -0.00077760     -0.00107264      0.00000000
285 1     21.30000000      2.45951000      0.00000000     -0.00002665      0.00027339      0.00000000
286 1     22.01000000      3.68927000      0.00000000      0.00002667     -0.00027323      0.00000000
287 1     23.43000000      3.68927000      0.00000000     -0.00002667     -0.00027323      0.00000000
288 1     24.14000000      2.45951000      0.00000000      0.00002665      0.00027339      0.00000000
289 1     21.30000000      4.91902000      0.00000000     -0.00004332      0.00029382      0.00000000
290 1     22.01000000      6.14878000      0.00000000     -0.00013085     -0.00000003      0.00000000
291 1     23.43000000      6.14878000      0.00000000      0.00013085     -0.00000003      0.00000000
292 1     24.14000000      4.91902000      0.00000000      0.00004332      0.00029382      0.00000000